LAMMPS data file via write_data, version 10 Aug 2015, timestep = 3500000

22116 atoms
6 atom types
16310 bonds
1 bond types
13984 angles
1 angle types
11658 dihedrals
1 dihedral types

0.0000000000000000e+00 8.2429299999999998e+01 xlo xhi
-12.0000000000000000e+01 7.0000000000000000e+01 ylo yhi
0.0000000000000000e+00 8.1004000000000005e+01 zlo zhi

Masses

1 15.034
2 14.026
3 112.411
4 32.065
5 15.034
6 14.026

Pair Coeffs # lj/cut

1 0.195 3.75
2 0.0914 3.95
3 0 0
4 0 0
5 0.195 3.75
6 0.0914 3.95

Bond Coeffs # harmonic

1 95.9 1.54

Angle Coeffs # harmonic

1 62.1 114

Dihedral Coeffs # opls

1 1.4114 -0.2711 3.1458 0

Atoms # molecular

18901 1432 5 19.056 -32.6518 76.928 -2 1 -4
18902 1432 6 18.0055 -33.0266 77.8828 -2 1 -4
15328 836 6 57.1786 -32.688 78.8352 3 0 4
15327 836 6 56.6723 -33.0439 77.4687 3 0 4
15326 836 6 55.4393 -32.3399 77.2006 3 0 4
15325 836 5 54.7438 -32.9129 75.96 3 0 4
14631 720 6 9.66619 65.6752 14.7023 8 1 -3
14629 720 5 9.55277 66.497 17.211 8 1 -3
14633 720 6 7.75045 65.1484 12.9294 8 1 -3
10543 39 5 63.1382 31.7576 33.0034 1 0 -1
15330 836 5 58.5239 -32.9458 80.8803 3 0 4
15329 836 6 58.2806 -33.4348 79.3746 3 0 4
20762 1742 6 17.6145 -33.1731 42.1585 2 0 1
21519 1868 6 56.1657 -11.2235 19.5658 2 1 0
21521 1868 6 54.7705 -9.31097 20.5489 2 1 0
21520 1868 6 54.7402 -10.7185 20.135 2 1 0
20761 1742 5 18.7007 -32.306 42.5493 2 0 1
14249 656 6 36.3149 -22.9283 8.66628 3 1 -2
20763 1742 6 16.2788 -32.4251 41.7812 2 0 1
20764 1742 6 15.3563 -31.9153 42.9349 2 0 1
21522 1868 5 55.8564 -9.11004 21.537 2 1 0
10855 91 5 52.1099 -48.9546 65.7118 0 0 2
19784 1579 6 22.9132 61.6733 78.2866 -3 0 -5
19470 1526 5 29.1664 -14.1385 8.91626 -1 0 -2
14250 656 5 37.1299 -21.7362 7.99592 3 1 -2
17421 1185 6 66.5715 -48.6185 39.1549 0 0 2
13816 584 6 60.3608 -29.7306 74.8907 2 0 6
17423 1185 6 65.938 -46.2716 38.0482 0 0 2
15116 801 6 12.1961 63.2035 8.46346 3 0 2
15115 801 5 13.6155 63.103 9.10809 3 0 2
14283 662 6 39.9388 58.3388 50.6219 -1 0 7
14282 662 6 41.2166 57.4971 50.3381 -1 0 7
13817 584 6 59.9233 -28.6798 75.9013 2 0 6
13818 584 5 60.4649 -27.2506 75.5833 2 0 6
14286 662 5 40.9923 61.8152 52.0817 -1 0 7
14284 662 6 40.0252 59.5609 51.6479 -1 0 7
14285 662 6 40.8497 60.675 51.1426 -1 0 7
14281 662 5 40.9185 56.1677 49.7179 -1 0 7
20881 1762 5 47.1918 -50.6383 40.6382 6 0 -1
20884 1762 6 48.8842 -49.8531 44.0154 6 0 -1
20882 1762 6 48.0962 -50.7582 41.7802 6 0 -1
20883 1762 6 47.7332 -50.0401 43.1557 6 0 -1
10856 91 6 52.9932 -48.8475 64.422 0 0 2
20885 1762 6 48.6371 -49.0701 45.3651 6 0 -1
21518 1868 6 56.2917 -12.8 19.6336 2 1 0
20886 1762 5 49.878 -49.1654 46.3828 6 0 -1
17422 1185 6 66.9113 -47.0857 38.8423 0 0 2
17424 1185 5 66.1827 -44.7779 38.1968 0 0 2
13815 584 6 59.6009 -30.9774 75.0302 2 0 6
12733 404 5 25.0298 50.4028 8.15721 0 0 -2
12734 404 6 24.8659 50.5688 9.72261 0 0 -2
12735 404 6 25.0592 49.1716 10.4727 0 0 -2
19368 1509 5 50.6141 -39.9645 17.1336 6 0 -2
19367 1509 6 52.0793 -40.0913 17.2011 6 0 -2
12737 404 6 24.1989 47.0009 11.1885 0 0 -2
12736 404 6 24.02 48.1695 10.0834 0 0 -2
19366 1509 6 52.6265 -40.5575 18.4888 6 0 -2
19365 1509 6 54.0586 -40.9932 18.4729 6 0 -2
12738 404 5 23.1003 45.9878 11.1407 0 0 -2
20148 1639 5 39.7511 -51.1124 2.71813 -3 2 8
19363 1509 5 56.2468 -41.3934 19.7795 6 0 -2
19364 1509 6 54.6579 -41.3456 19.8307 6 0 -2
20004 1615 5 16.6273 -28.5476 65.7499 1 0 -4
20002 1615 6 17.2444 -29.6485 63.4859 1 0 -4
20001 1615 6 16.9091 -30.6613 62.4176 1 0 -4
20003 1615 6 16.1232 -29.4503 64.5041 1 0 -4
12951 440 6 33.164 -51.0673 58.4128 -9 1 3
12949 440 5 33.5001 -51.8703 61.0066 -9 1 3
11299 165 5 13.8883 -42.593 6.30322 7 0 2
12950 440 6 33.6072 -52.2575 59.5344 -9 1 3
12952 440 6 33.9617 -49.8441 58.5189 -9 1 3
12954 440 5 34.3806 -47.4357 57.5917 -9 1 3
18439 1355 5 29.0818 -29.9739 50.8296 2 0 0
18635 1387 6 18.7807 64.1062 70.7086 1 0 3
14630 720 6 10.0393 65.3977 16.2071 8 1 -3
14634 720 5 6.28202 65.2118 12.7042 8 1 -3
14632 720 6 8.18153 65.6718 14.3449 8 1 -3
11527 203 5 23.5761 -9.06974 69.5782 1 1 1
11528 203 6 23.5276 -10.1063 68.3721 1 1 1
12651 390 6 34.4542 65.5177 44.5019 -1 0 2
20427 1686 6 79.3203 37.3057 70.1006 -2 0 0
20426 1686 6 77.9937 37.3791 70.7043 -2 0 0
20425 1686 5 76.9923 37.2912 69.4919 -2 0 0
12654 390 5 32.0044 63.3219 46.4145 -1 0 2
12653 390 6 32.499 64.583 45.9227 -1 0 2
12652 390 6 33.9032 64.3197 45.1623 -1 0 2
13062 458 5 18.4025 -65.5205 13.0738 2 1 4
13061 458 6 19.2691 -64.6827 14.1255 2 1 4
11531 203 6 20.5477 -11.3032 68.475 1 1 1
12192 313 5 42.1064 31.0684 74.4167 -1 0 4
11529 203 6 22.2783 -9.85882 67.4066 1 1 1
11530 203 6 20.8318 -9.95224 68.0042 1 1 1
18631 1387 5 20.0348 68.9974 71.7236 1 0 3
18633 1387 6 19.4312 66.4461 71.4768 1 0 3
18634 1387 6 19.9427 64.9888 71.3731 1 0 3
18632 1387 6 20.4923 67.4632 71.7064 1 0 3
21439 1855 5 38.9452 53.0167 49.1493 0 0 -7
14248 656 6 35.089 -23.3305 8.01086 3 1 -2
14247 656 6 34.3093 -24.3822 8.83706 3 1 -2
14246 656 6 34.0706 -23.9679 10.1724 3 1 -2
14245 656 5 32.9421 -24.8105 10.9866 3 1 -2
19783 1579 5 21.5871 61.6577 78.9551 -3 0 -5
19475 1527 6 41.8877 30.7115 30.9123 -5 0 1
19476 1527 5 41.8687 32.3757 31.1928 -5 0 1
19788 1579 5 25.7334 63.2219 74.0473 -3 0 -5
17663 1225 6 12.3522 62.1282 35.0662 -2 0 0
19787 1579 6 24.412 62.6398 74.6819 -3 0 -5
19785 1579 6 23.0199 61.8698 76.8058 -3 0 -5
19786 1579 6 24.3936 62.3559 76.3405 -3 0 -5
17664 1225 5 11.8177 61.9622 33.5562 -2 0 0
21441 1855 6 38.1148 53.4769 51.5036 0 0 -7
10860 91 5 55.9819 -49.4034 61.0703 0 0 2
21442 1855 6 37.7886 52.9585 52.9562 0 0 -7
21444 1855 5 37.3011 53.7192 55.3482 0 1 -7
21443 1855 6 37.1831 54.0006 53.9104 0 0 -7
10859 91 6 55.0483 -49.118 62.2018 0 0 2
10857 91 6 52.7789 -49.8699 63.3008 0 0 2
10858 91 6 53.6935 -49.7931 61.9466 0 0 2
19980 1611 5 18.0475 35.1681 25.7265 -3 0 -6
19976 1611 6 22.0098 34.3894 28.2281 -3 0 -6
19977 1611 6 20.462 34.6377 28.0187 -3 0 -6
19978 1611 6 19.8616 33.8494 26.9495 -3 0 -6
12967 443 5 20.4459 -43.9597 7.02475 4 1 0
19979 1611 6 19.3576 34.5131 25.6167 -3 0 -6
12968 443 6 19.9387 -45.4365 7.44724 4 1 0
12969 443 6 21.2151 -46.4412 7.51965 4 1 0
15527 869 6 47.4112 -24.1615 72.5304 0 1 0
15528 869 5 48.0238 -25.6579 72.4061 0 1 0
15526 869 6 46.7914 -23.5468 71.2013 0 1 0
15524 869 6 44.9382 -21.7423 70.5364 0 1 0
15523 869 5 43.6476 -20.993 71.1371 0 1 0
21973 1944 5 31.7448 63.7798 10.1048 4 0 -3
15525 869 6 45.6673 -22.5636 71.6284 0 1 0
21974 1944 6 31.8294 64.3011 8.64468 4 0 -3
21975 1944 6 32.4529 65.7203 8.67209 4 0 -3
12071 293 6 18.8931 -54.3567 39.0143 3 1 -3
19440 1521 5 28.6214 -37.3619 17.0795 4 0 -1
19439 1521 6 29.6559 -37.9879 18.0406 4 0 -1
19975 1611 5 22.6582 35.2785 29.2251 -3 0 -6
19437 1521 6 31.3603 -37.8481 20.1984 4 0 -1
19435 1521 5 31.7279 -38.7748 22.3726 4 0 -1
19436 1521 6 30.8134 -38.744 21.3136 4 0 -1
12072 293 5 17.5074 -53.5674 39.2038 3 1 -3
19438 1521 6 30.1229 -37.0635 19.2494 4 0 -1
12070 293 6 19.7175 -54.6229 40.3319 3 1 -3
14413 684 5 82.0289 -41.5432 46.3365 5 0 -2
20960 1775 6 62.1429 45.1806 4.77547 -2 0 1
11300 165 6 15.4532 -42.6402 6.62236 7 0 2
11302 165 6 16.0524 -44.4898 4.92286 7 0 2
12953 440 6 33.4892 -48.7346 57.5103 -9 1 3
11301 165 6 16.1078 -43.9691 6.3386 7 0 2
19780 1578 6 51.8153 -40.9819 33.8031 -2 0 5
19779 1578 6 52.696 -40.9639 35.0051 -2 0 5
19777 1578 5 53.0069 -40.591 37.4703 -2 0 5
15386 846 6 77.0433 -36.3675 67.2093 -2 0 1
18735 1404 6 70.7255 -11.1554 24.7082 1 1 -2
18734 1404 6 69.6775 -11.0727 23.5381 1 1 -2
18736 1404 6 70.954 -9.86402 25.2463 1 1 -2
11304 165 5 16.8857 -44.3295 2.33393 7 0 2
11303 165 6 17.033 -43.705 3.84335 7 0 2
18229 1320 5 28.4358 -31.8238 54.7082 3 0 -1
15388 846 6 79.4471 -35.5364 67.1977 -2 1 1
18230 1320 6 26.9603 -32.2239 54.5802 3 0 -1
19778 1578 6 52.0051 -40.5908 36.2788 -2 0 5
18231 1320 6 27.0279 -33.8062 54.853 3 0 -2
18738 1404 5 71.7065 -10.3693 27.4998 1 1 -2
19781 1578 6 52.7634 -40.9636 32.6659 -2 0 5
15390 846 5 81.9794 -34.8646 67.3977 -2 1 1
15389 846 6 80.9328 -35.8264 66.6529 -2 1 1
18737 1404 6 72.0186 -9.75121 26.1922 1 1 -2
15385 846 5 76.4142 -36.0793 68.6613 -2 0 1
20959 1775 5 63.2754 45.7126 4.15524 -2 0 1
15387 846 6 78.545 -36.6808 67.0253 -2 0 1
18636 1387 5 18.3281 64.4518 69.3128 1 0 3
11490 196 5 40.9377 30.1301 62.9142 6 1 4
11489 196 6 42.2856 29.6663 63.7396 6 1 4
11487 196 6 43.1285 32.0152 63.6083 5 1 4
11486 196 6 44.4316 32.8893 63.8057 5 1 4
11488 196 6 43.3944 30.4922 63.4252 5 1 4
11485 196 5 44.2215 34.1072 64.7902 5 1 4
20504 1699 6 30.7919 -52.3516 77.0824 -1 0 3
13057 458 5 20.0124 -64.3041 19.299 2 1 4
13058 458 6 19.0397 -64.552 18.1279 2 1 4
13060 458 6 18.5556 -64.6076 15.575 2 1 4
13059 458 6 19.576 -64.4664 16.6884 2 1 4
21606 1882 5 51.0388 46.9993 78.7607 4 1 1
21605 1882 6 50.4904 48.259 78.1531 4 1 1
20503 1699 5 31.1594 -51.142 76.3763 -1 0 3
21604 1882 6 48.9587 48.2525 78.115 4 1 1
21603 1882 6 48.4902 49.6819 77.7098 4 1 1
21602 1882 6 49.0339 51.0158 78.5709 4 1 1
16963 1109 5 24.4663 28.0653 46.1199 3 0 -3
21870 1926 5 34.0985 -43.7261 53.1338 -5 0 -2
16965 1109 6 23.2853 30.4719 45.5226 3 0 -3
16964 1109 6 23.4362 29.2206 46.5385 3 0 -3
21869 1926 6 34.7397 -43.3674 51.7398 -5 0 -2
11055 124 6 30.3026 41.1692 44.8596 -3 1 -3
11054 124 6 30.7735 41.8551 46.1657 -3 1 -3
11053 124 5 32.0337 42.5113 45.9328 -3 1 -3
11057 124 6 29.7247 38.6934 43.989 -3 1 -3
11056 124 6 29.7806 39.7603 45.1801 -3 1 -3
14760 741 5 38.6412 -38.1914 28.2684 -6 1 1
18132 1303 5 22.1172 -25.7623 31.3354 2 0 -1
11058 124 5 29.0116 37.2361 44.2781 -3 1 -3
19736 1571 6 58.9739 28.5421 30.6956 3 1 -2
19737 1571 6 57.8087 28.9252 31.6041 3 1 -2
18131 1303 6 22.32 -24.3477 31.9516 2 0 -1
18130 1303 6 23.8219 -24.0395 32.2662 2 0 -1
21403 1849 5 25.3143 33.6467 10.56 2 0 4
13331 503 6 64.9152 -26.2546 65.4855 -1 0 2
13332 503 5 64.1158 -25.0406 65.7498 -1 0 2
13327 503 5 68.6832 -28.286 62.7422 -1 0 2
13329 503 6 66.7341 -27.2412 64.0546 -1 0 2
13330 503 6 66.0716 -25.9829 64.5737 -1 0 2
13328 503 6 68.2724 -27.2526 63.6247 -1 0 2
21601 1882 5 48.568 52.4496 78.0535 4 1 1
19738 1571 6 56.6605 28.1218 31.5398 3 1 -2
19739 1571 6 55.4529 28.6627 32.5052 3 1 -2
19740 1571 5 55.693 28.4556 34.0733 3 1 -2
18800 1415 6 37.8309 -47.2402 2.26773 -1 0 3
16435 1021 5 82.1053 -33.7739 46.7696 -4 0 7
21440 1855 6 38.7715 52.4417 50.5704 0 0 -7
18276 1327 5 67.1464 -49.0644 45.1501 6 2 2
12970 443 6 21.0591 -47.7746 8.17303 4 1 0
12971 443 6 20.1136 -48.5873 7.39981 4 1 0
12972 443 5 18.7482 -48.6946 8.13655 4 1 0
18135 1304 6 45.0019 -33.8 3.20463 3 1 2
18136 1304 6 44.3293 -35.2023 2.8716 3 1 2
15294 830 5 50.7874 -35.2889 54.4756 0 1 0
19735 1571 5 60.2608 29.277 30.7475 3 1 -2
17436 1187 5 48.1181 33.029 22.2322 2 0 7
18138 1304 5 42.1874 -36.3638 2.11614 3 1 2
18137 1304 6 42.8801 -35.0647 2.56554 3 1 2
18044 1289 6 54.4427 -24.6817 20.4875 1 1 -3
18045 1289 6 54.7474 -25.9612 19.8508 1 1 -3
18046 1289 6 55.6022 -25.6396 18.7091 1 1 -3
18047 1289 6 54.7514 -25.2042 17.5047 1 1 -3
18048 1289 5 55.5154 -25.2221 16.1508 1 1 -3
16916 1101 6 14.156 32.9378 23.9909 3 1 -3
16915 1101 5 15.5002 32.663 24.7939 3 1 -3
16917 1101 6 14.1311 32.6195 22.5417 3 1 -3
17434 1187 6 49.4211 34.7647 23.6065 2 0 7
16918 1101 6 12.8096 33.0421 21.7101 3 1 -3
17435 1187 6 49.2896 33.2661 23.1546 2 0 7
17431 1187 5 48.6689 37.7629 21.2826 3 0 7
17432 1187 6 49.2262 37.0332 22.4844 3 0 7
17433 1187 6 48.8934 35.6017 22.4636 2 0 7
21408 1849 5 27.5045 36.1063 6.70181 2 0 4
21405 1849 6 24.4063 34.6371 8.28613 2 0 4
21407 1849 6 26.4688 35.8485 7.69674 2 0 4
21406 1849 6 25.768 34.5173 7.6249 2 0 4
21404 1849 6 24.4317 34.6966 9.88677 2 0 4
22097 1964 6 59.6017 -45.7885 61.9244 2 1 -1
18134 1304 6 45.1764 -32.9941 1.75537 3 1 2
18133 1304 5 45.9506 -33.6537 0.66741 3 1 2
13173 477 6 30.9979 -58.0873 17.4827 -1 0 0
13174 477 6 32.3848 -58.7144 17.3125 -1 0 0
22093 1964 5 60.0269 -48.9818 58.1122 2 2 -1
13172 477 6 29.8413 -59.1149 17.4433 -1 0 0
13171 477 5 28.4762 -58.4539 17.2848 -1 0 0
13175 477 6 33.4493 -57.7549 17.0174 -1 0 0
13176 477 5 34.837 -58.4426 17.0431 -1 0 0
22094 1964 6 60.3976 -47.6375 58.757 2 2 -1
22095 1964 6 60.013 -47.6551 60.2228 2 2 -1
22096 1964 6 60.5708 -46.4429 60.9894 2 2 -1
15293 830 6 49.5971 -36.2846 54.7723 0 1 0
22098 1964 5 60.1231 -44.6187 62.9147 2 1 -1
14414 684 6 81.1312 -42.6336 47.1575 5 0 -2
14415 684 6 81.4597 -44.044 46.6165 5 0 -2
14417 684 6 80.809 -46.6319 46.2785 5 0 -2
18733 1404 5 69.5636 -12.3445 22.7691 1 1 -2
16920 1101 5 10.258 33.0218 21.6499 3 1 -3
16919 1101 6 11.5761 32.5274 22.3551 3 1 -3
17262 1158 5 6.10469 -48.5822 11.3092 7 0 2
19782 1578 5 51.9229 -40.6823 31.4005 -2 0 5
17261 1158 6 7.15823 -48.0232 12.399 6 0 2
19127 1469 6 27.2119 -34.7982 63.7526 0 1 -3
17258 1158 6 11.075 -48.3057 12.709 6 0 2
13665 559 6 23.5688 35.6684 60.2124 0 1 1
13664 559 6 23.2353 36.8009 61.3407 0 1 1
13663 559 5 22.1181 36.4194 62.1836 0 1 1
13088 463 6 68.2154 -36.8014 52.2109 -2 1 2
19128 1469 5 26.8953 -33.3338 63.6485 0 1 -3
17260 1158 6 8.76456 -47.9692 11.82 6 0 2
17259 1158 6 9.69702 -47.8777 13.0134 6 0 2
14416 684 6 80.4935 -45.1963 46.8147 5 0 -2
17257 1158 5 11.2008 -49.7739 12.4393 6 0 2
16714 1067 6 40.4604 -49.2313 18.6172 -2 1 1
15383 845 6 25.886 -21.2466 22.1236 0 0 3
14186 646 6 7.77283 -41.9437 6.09251 -2 1 0
14755 741 5 36.1058 -39.4811 32.5503 -6 1 1
14756 741 6 36.6473 -40.6579 31.7058 -6 1 1
14188 646 6 6.71569 -39.5152 5.62922 -2 1 0
14187 646 6 7.21312 -40.8728 5.01476 -2 1 0
14758 741 6 38.3489 -39.1056 30.7373 -6 1 1
14757 741 6 37.2899 -40.1839 30.478 -6 1 1
14190 646 5 5.44104 -37.3825 5.18749 -2 1 0
14189 646 6 6.08193 -38.6146 4.56255 -2 1 0
11273 160 6 23.1399 -52.9095 35.3879 4 1 -2
16169 976 6 81.8473 -45.2198 1.82498 4 1 -1
16170 976 5 81.8855 -43.741 1.08666 4 1 -1
12232 320 6 21.9252 -39.6237 30.5469 5 1 1
16713 1067 6 39.3345 -49.4532 17.6578 -2 1 1
16712 1067 6 39.1782 -48.3447 16.5947 -2 1 1
16711 1067 5 37.9689 -48.3997 15.6366 -2 1 1
12230 320 6 22.7042 -38.1378 28.4876 5 1 1
12229 320 5 23.4912 -38.1736 27.2402 5 1 1
16967 1109 6 21.2268 31.4804 46.7258 3 0 -3
16968 1109 5 20.2664 32.8023 46.8299 3 0 -3
16966 1109 6 22.5395 31.7221 45.9542 3 0 -3
12231 320 6 22.641 -39.5463 29.1284 5 1 1
18803 1415 6 36.3164 -49.9073 1.49156 -1 0 3
11272 160 6 23.1461 -51.9833 34.318 4 1 -2
12308 333 6 80.1543 -15.3694 44.3416 -1 0 0
16715 1067 6 40.4363 -50.0444 19.9037 -2 1 1
12310 333 6 82.1607 -14.3927 43.3789 -1 0 0
12309 333 6 80.8837 -14.9942 43.0534 -1 0 0
14759 741 6 39.3453 -38.7394 29.5784 -6 1 1
12311 333 6 0.606055 -13.7951 42.0333 -1 0 0
12312 333 5 0.183051 -12.4362 41.3636 -1 0 0
16716 1067 5 39.4154 -49.845 20.9745 -2 1 1
18129 1303 6 24.0686 -22.9639 33.2181 2 0 -1
18128 1303 6 24.2177 -21.5603 32.5434 2 0 -1
12307 333 5 79.5756 -14.1915 45.2034 -1 0 0
18799 1415 5 38.1851 -45.7736 2.80961 -1 0 3
21319 1835 5 20.6156 55.5943 45.8968 -2 0 3
21323 1835 6 20.7728 57.3068 50.6447 -2 0 3
21322 1835 6 21.2012 57.708 49.2092 -2 0 3
21321 1835 6 20.6674 56.6728 48.1687 -2 0 3
21320 1835 6 20.8432 56.9192 46.6771 -2 0 3
18801 1415 6 37.2232 -47.4736 0.859651 -1 0 3
18802 1415 6 37.06 -48.9438 0.515991 -1 0 3
13043 455 6 33.6563 60.5779 23.1262 4 1 0
13039 455 5 38.1096 61.1265 22.1822 4 1 0
13041 455 6 35.6321 61.2808 21.593 4 1 0
13042 455 6 34.9995 61.2917 23.012 4 1 0
13040 455 6 37.0232 61.8263 21.4193 4 1 0
13044 455 5 32.9298 60.2923 24.4737 4 1 0
16458 1024 5 44.6507 40.4114 43.5077 4 0 1
14514 700 5 3.1368 53.6858 6.18569 2 1 3
16171 977 5 40.0679 -32.2756 39.4846 3 1 3
16175 977 6 37.047 -34.8853 40.3926 3 1 3
16173 977 6 38.6602 -33.1845 41.4462 3 1 3
16172 977 6 38.7255 -32.2059 40.2971 3 1 3
16174 977 6 38.3704 -34.6395 41.0745 3 1 3
16176 977 5 35.8614 -34.5134 41.2429 3 1 3
14467 693 5 20.9508 -68.2938 68.5967 -4 2 4
18127 1303 5 24.1824 -20.3338 33.4656 2 0 -1
14469 693 6 20.2187 -67.1061 70.7586 -4 2 4
14468 693 6 21.3155 -67.7943 70.064 -4 2 4
12361 342 5 6.5989 35.4364 23.9986 5 0 -4
15217 818 5 59.2503 25.4588 17.1848 -1 1 3
13017 451 6 19.7759 -40.4704 9.76787 0 1 3
19990 1613 6 49.7448 48.4894 16.8841 4 0 1
19991 1613 6 49.1424 47.5846 15.7867 4 0 1
19992 1613 5 47.9207 46.9299 16.2451 4 0 1
18175 1311 5 30.8045 -63.8282 1.29483 -4 1 3
18176 1311 6 29.9663 -64.9814 1.90874 -4 1 3
14470 693 6 19.8136 -65.7218 69.9549 -4 2 4
18177 1311 6 28.8855 -65.5327 0.984103 -4 1 3
18178 1311 6 27.8053 -66.3024 1.67988 -4 1 3
18179 1311 6 28.2569 -67.5275 2.60565 -4 1 3
18180 1311 5 26.9505 -68.428 3.18081 -4 1 3
18890 1430 6 32.2629 -34.698 77.6794 -2 0 1
18893 1430 6 29.0058 -34.1206 79.9993 -2 0 1
18891 1430 6 31.1021 -33.9436 78.2604 -2 0 1
13020 451 5 22.2351 -37.5077 8.46759 0 1 3
13019 451 6 21.2972 -38.7099 8.38028 0 1 3
10515 34 6 62.4599 -42.2784 14.5991 5 0 1
10516 34 6 61.8066 -43.273 15.4612 5 0 1
15289 830 5 46.3831 -35.9852 51.2708 0 1 0
15290 830 6 47.5083 -36.7137 51.5693 0 1 0
15291 830 6 48.0586 -36.1958 52.8889 0 1 0
15292 830 6 49.0333 -37.0188 53.6526 0 1 0
12144 305 5 49.1057 -33.2888 57.7796 2 0 -1
12142 305 6 48.6032 -30.993 56.7245 2 0 -1
12143 305 6 48.6003 -32.6016 56.5413 2 0 -1
10517 34 6 62.4572 -44.6209 15.5082 5 0 1
12140 305 6 48.8275 -28.7681 55.5541 2 0 -1
11922 268 5 4.70509 -37.5474 78.9245 3 1 -3
12141 305 6 49.1108 -30.1763 55.5327 2 0 -1
13018 451 6 20.6444 -39.1341 9.73877 0 1 3
21292 1830 6 10.4128 -26.7394 74.4055 2 0 3
19126 1469 6 28.4826 -35.2653 63.0053 -1 1 -3
19124 1469 6 28.015 -37.9001 62.6758 -1 1 -3
19125 1469 6 29.0038 -36.7923 63.0553 -1 1 -3
19277 1494 6 37.2264 39.185 52.3687 -1 1 -1
14471 693 6 18.6598 -65.0838 70.7204 -4 1 4
21294 1830 5 10.2112 -25.941 76.7738 2 0 3
19123 1469 5 28.6476 -39.3065 62.4684 -1 1 -3
11921 268 6 4.13587 -37.7183 77.5005 3 1 -3
14472 693 5 18.1 -63.7796 70.2654 -4 1 4
11919 268 6 4.20643 -38.7504 75.1164 3 1 -3
11920 268 6 5.0391 -38.4992 76.4282 3 1 -3
11918 268 6 3.96584 -37.3284 74.3955 3 1 -3
11917 268 5 2.83899 -37.4055 73.4241 3 1 -3
21293 1830 6 10.9365 -26.8525 75.8145 2 0 3
19278 1494 5 37.218 40.485 53.2106 -1 1 -1
19273 1494 5 37.5516 34.641 52.2051 -1 0 -1
19274 1494 6 37.5264 36.1121 52.5002 -1 0 -1
19275 1494 6 38.2373 37.1355 51.5468 -1 0 -1
19276 1494 6 38.4906 38.4648 52.1666 -1 1 -1
15380 845 6 25.127 -24.8694 23.968 0 0 3
17227 1153 5 66.7393 -34.9185 37.8425 0 0 5
11382 178 5 41.5793 59.5835 29.2515 0 0 -2
11380 178 6 40.3687 57.1243 29.5826 0 0 -2
11379 178 6 40.5838 56.7217 31.0485 0 0 -2
11381 178 6 40.1879 58.7087 29.519 0 0 -2
15379 845 5 25.5812 -26.3219 24.0365 0 0 3
11274 160 5 23.4732 -54.4094 35.2466 4 1 -2
19068 1459 5 34.3937 71.6652 4.78208 6 1 6
21562 1875 6 43.6642 -22.0467 75.7808 4 1 0
11964 275 5 56.3812 -50.6463 18.2876 5 1 3
11963 275 6 55.617 -50.6746 19.5882 5 1 3
21564 1875 5 45.9768 -21.1445 76.4049 4 1 0
21563 1875 6 45.032 -21.584 75.2368 4 1 0
11961 275 6 56.2891 -48.4033 19.9518 5 1 3
11271 160 6 23.2421 -50.5803 34.7625 4 1 -2
11583 212 6 51.2658 27.9593 36.0132 -2 1 1
11270 160 6 22.2339 -50.0991 35.6251 4 1 -2
11581 212 5 51.2125 25.149 36.1085 -2 1 1
11269 160 5 22.7386 -48.7435 36.1789 4 1 -2
11584 212 6 49.9735 28.309 35.2429 -2 1 1
11582 212 6 51.2908 26.5742 36.943 -2 1 1
11611 217 5 62.1106 -39.3478 49.3887 0 0 4
11612 217 6 62.5455 -38.1898 48.5473 0 0 4
13054 457 6 5.40854 -34.3816 41.6321 -2 1 -5
11613 217 6 62.1708 -36.7761 49.09 0 0 4
13053 457 6 5.72396 -32.9978 41.042 -2 1 -5
10672 60 6 13.7043 62.9291 66.2487 -6 1 0
10673 60 6 12.783 62.0697 65.3498 -6 1 0
17229 1153 6 69.2212 -34.983 36.8854 0 0 5
17228 1153 6 68.2194 -35.3615 38.1554 0 0 5
17231 1153 6 71.4964 -35.3538 35.8951 0 0 5
15599 881 6 57.3711 33.0266 12.2803 0 2 -1
15600 881 5 55.9334 33.4656 12.6402 0 2 -1
15597 881 6 59.6742 33.3868 13.4085 0 1 -1
15598 881 6 58.2345 33.6311 13.3858 0 1 -1
17230 1153 6 70.5721 -35.6388 36.9695 0 0 5
11378 178 6 41.3255 55.2265 31.1998 0 0 -2
11377 178 5 41.6484 54.9036 32.639 0 0 -2
10669 60 5 12.3705 66.1092 64.4622 -6 1 0
15596 881 6 60.0746 32.1239 14.2179 0 1 -1
15595 881 5 61.5283 31.9294 14.2288 0 1 -1
17232 1153 5 72.957 -35.7068 36.1871 0 0 5
10428 19 5 34.8033 -54.5578 46.1009 0 0 -3
18852 1423 5 28.6069 37.1084 12.7965 2 1 7
11113 134 5 45.7996 43.4888 29.5966 1 1 2
21324 1835 5 19.2213 57.2784 50.9505 -2 0 3
16457 1024 6 45.7888 39.4674 43.7668 4 0 1
13051 457 5 3.71667 -31.7341 39.7248 -2 1 -5
16455 1024 6 48.1091 39.0354 44.7702 4 0 1
13052 457 6 4.55728 -31.9353 41.0665 -2 1 -5
11116 134 6 47.4144 44.3228 32.2335 1 1 1
17688 1229 5 39.4524 -57.4725 48.3897 -2 0 3
11616 217 5 63.4467 -34.475 52.0626 0 0 4
10426 19 6 34.7326 -56.7016 44.7244 0 0 -3
11615 217 6 62.8377 -34.8458 50.678 0 0 4
11614 217 6 63.3279 -36.2116 49.9502 0 0 4
16456 1024 6 46.9702 40.0128 44.5067 4 0 1
10427 19 6 34.1297 -55.872 45.8676 0 0 -3
16453 1024 5 50.7122 38.5893 45.2299 4 0 1
16454 1024 6 49.4491 39.6756 45.1743 4 0 1
17687 1229 6 38.1993 -57.8374 47.5745 -2 0 3
11117 134 6 47.8847 43.9671 33.7249 1 1 1
11118 134 5 48.3419 45.1966 34.4576 1 1 1
17686 1229 6 38.5564 -58.8868 46.41 -2 0 3
13016 451 6 19.1155 -40.6524 11.0831 0 1 3
20060 1625 6 76.989 50.4384 68.8137 5 0 -2
14761 742 5 45.3966 25.5272 52.5779 1 1 0
14762 742 6 44.8112 26.6535 51.6261 1 0 0
14766 742 5 43.7859 28.4148 46.7493 2 0 0
11995 281 5 81.0178 27.7902 13.2325 -2 1 0
14764 742 6 44.4022 27.3309 49.1441 1 0 0
15218 818 6 57.6676 25.9594 17.2995 -1 1 3
14763 742 6 44.5202 26.0956 50.1025 1 0 0
11996 281 6 79.9566 27.0022 14.0766 -2 1 0
15708 899 5 1.17875 -36.5145 24.9364 0 0 -5
13015 451 5 18.8293 -42.0992 11.2253 0 1 3
14765 742 6 43.8249 27.0418 47.7375 1 0 0
15219 818 6 57.2735 26.6506 18.5202 0 1 3
20149 1640 5 77.6858 -34.2791 46.3825 4 1 -1
11039 121 6 54.3726 46.4586 59.7176 0 1 0
15267 826 6 79.1072 -31.0521 37.7307 2 1 -2
20151 1640 6 76.1568 -33.136 44.5474 4 1 -1
20150 1640 6 77.0275 -34.2798 44.8964 4 1 -1
16644 1055 5 35.0339 -13.3533 72.3217 -1 1 -5
15266 826 6 80.0125 -31.4611 38.9957 2 1 -2
18889 1430 5 33.4263 -33.8905 77.1086 -2 0 1
18894 1430 5 28.2777 -35.1849 80.763 -2 0 1
18892 1430 6 30.0955 -34.9186 78.9717 -2 0 1
17683 1229 5 38.4814 -59.5721 43.5429 -2 0 3
17685 1229 6 37.2936 -59.5122 45.6823 -2 0 3
16643 1055 6 34.3374 -12.3803 73.1995 -1 1 -5
17684 1229 6 37.7481 -60.4454 44.5994 -2 0 3
20153 1640 6 74.4286 -34.168 43.1338 4 1 -1
11040 121 5 55.7846 45.9711 59.224 -1 1 0
20152 1640 6 75.5652 -33.1013 43.1416 4 1 -1
15537 871 6 57.2959 37.5822 9.09676 6 0 -9
11041 122 5 58.956 40.3642 80.962 -1 1 -5
10336 4 6 37.3224 49.402 35.4942 2 0 0
10337 4 6 36.418 48.5183 34.7625 2 0 0
15536 871 6 56.5944 38.9611 9.16812 6 0 -9
20059 1625 5 76.9918 49.5608 67.6238 5 0 -2
15707 899 6 1.2981 -37.534 26.1379 0 0 -5
15539 871 6 58.6659 38.4563 10.91 6 0 -9
15540 871 5 60.0727 38.838 11.6232 6 0 -9
15221 818 6 55.4369 27.8634 19.8264 -1 1 3
15220 818 6 55.7673 26.871 18.6553 -1 1 3
15222 818 5 55.9533 27.3639 21.2548 -1 1 3
12139 305 5 47.8707 -28.1602 54.462 2 0 -1
15538 871 6 58.6427 37.7175 9.5533 6 0 -9
11042 122 6 58.8208 41.8952 80.482 -1 1 -5
10338 4 5 37.2872 47.2342 34.2462 2 0 0
11451 190 6 25.4802 52.7722 45.5559 4 1 -3
20154 1640 5 73.6839 -34.4441 41.7692 4 1 -1
15705 899 6 0.240088 -38.7243 28.2688 0 0 -5
15706 899 6 0.116191 -37.6404 27.1285 0 0 -5
19984 1612 6 60.5673 -30.0787 51.539 3 0 0
21913 1934 5 27.2365 62.3052 42.2424 0 1 0
15703 899 5 1.86448 -40.0382 29.6684 0 0 -5
11450 190 6 26.3943 52.7451 44.4638 4 1 -3
11449 190 5 25.6229 52.239 43.2447 4 1 -3
19986 1612 5 59.1707 -32.2881 51.1861 3 0 0
19985 1612 6 60.4722 -31.5237 51.8268 3 0 0
19983 1612 6 60.8959 -29.8375 50.124 3 0 0
15704 899 6 1.6189 -38.7977 29.0095 0 0 -5
19982 1612 6 61.18 -28.2443 50.009 3 0 0
19981 1612 5 61.8817 -27.7141 51.0223 3 0 0
19067 1459 6 32.827 71.4225 4.61698 6 1 6
19064 1459 6 29.9554 69.498 6.71264 5 1 6
19066 1459 6 32.1062 70.6274 5.81402 6 1 6
19065 1459 6 30.6246 70.218 5.55711 5 1 6
13963 609 5 64.8425 -35.7691 46.2748 3 1 -3
13964 609 6 64.8413 -36.4351 44.8238 3 1 -3
18847 1423 5 31.6242 37.6683 8.57433 2 1 7
13965 609 6 66.2188 -36.4088 44.2328 3 1 -3
18848 1423 6 30.7171 38.605 9.58984 2 1 7
18341 1338 6 0.180601 -60.9645 14.5734 0 0 3
14971 777 5 5.37893 -13.1157 15.8166 2 1 -2
18342 1338 5 81.819 -62.0152 15.3241 0 0 3
21561 1875 6 42.6838 -22.5138 74.7788 4 1 0
21560 1875 6 41.3112 -23.0718 75.1192 4 1 0
21559 1875 5 40.2356 -22.8271 74.0399 4 1 0
14973 777 6 4.42747 -13.2818 18.1291 2 1 -2
14972 777 6 4.24317 -13.4979 16.6284 2 1 -2
18340 1338 6 81.7996 -59.5422 14.2995 0 0 3
14974 777 6 3.19426 -13.7371 18.827 2 1 -2
14976 777 5 3.4702 -12.2678 20.8331 2 1 -2
14975 777 6 3.41121 -13.7345 20.3419 2 1 -2
19063 1459 5 28.5018 69.1917 6.61592 5 1 6
16461 1025 6 51.9399 -66.8903 43.8072 -1 0 -3
16462 1025 6 53.2469 -67.5626 43.3757 -1 0 -3
13574 544 6 2.52353 -21.5321 32.8965 3 0 2
13575 544 6 3.48176 -20.8762 32.0835 3 0 2
16460 1025 6 51.5242 -67.3966 45.1989 -1 0 -3
13577 544 6 5.76732 -21.5102 31.1704 3 0 2
13576 544 6 5.00431 -21.2132 32.3117 3 0 2
13578 544 5 7.06288 -22.2121 31.2465 3 0 2
13573 544 5 1.12141 -20.8459 32.8959 3 0 2
16463 1025 6 53.4559 -68.0206 41.848 -1 0 -3
21508 1866 6 49.1816 40.9986 0.0813785 2 1 -3
21509 1866 6 49.4233 39.9709 79.946 2 1 -3
21510 1866 5 50.8501 39.8651 79.4274 2 1 -3
16459 1025 5 50.0757 -67.244 45.3855 -1 0 -3
16230 986 5 47.8705 38.7625 69.3155 0 0 -2
13966 609 6 66.2471 -36.9802 42.7959 3 1 -3
13967 609 6 67.6648 -37.2176 42.2178 3 1 -3
13968 609 5 68.5877 -35.9906 42.4802 3 1 -3
18849 1423 6 31.078 38.5826 11.1707 2 1 7
10425 19 6 34.1832 -58.0758 44.3573 0 0 -3
18850 1423 6 30.9093 37.2031 11.6924 2 1 7
18851 1423 6 29.4542 36.6523 11.6298 2 1 7
11910 266 5 25.8786 -50.4995 78.3213 5 1 5
14084 629 6 15.1718 37.2094 72.035 -1 1 2
14085 629 6 14.171 36.2514 72.7405 -1 1 2
14086 629 6 13.8424 35.0229 72.0009 -1 1 2
10423 19 5 33.3342 -57.945 41.9571 0 0 -3
11909 266 6 26.4966 -50.6624 79.8043 5 1 5
14083 629 5 15.8748 38.2838 72.8854 -1 1 2
11907 266 6 25.8844 -51.8343 1.04086 5 1 5
11908 266 6 25.7821 -51.8914 80.6027 5 1 5
11906 266 6 24.9564 -52.9358 1.55348 5 1 5
11905 266 5 24.4883 -52.7418 3.03938 5 1 5
10424 19 6 34.4333 -58.3197 42.9365 -1 0 -3
15726 902 5 9.54743 -27.9495 30.922 2 0 1
11998 281 6 79.1236 26.2318 16.3889 -2 1 0
10566 42 5 77.473 31.3018 12.104 4 1 0
11999 281 6 79.3416 26.2352 17.8663 -2 1 0
12000 281 5 78.0573 25.9503 18.6792 -2 1 0
11997 281 6 80.2475 26.9441 15.5541 -2 1 0
22073 1960 6 41.1509 -68.2703 10.9843 5 1 -6
20061 1625 6 78.045 50.2731 69.9072 5 0 -2
16640 1055 6 32.8687 -10.0331 74.084 -1 1 -5
16639 1055 5 32.4557 -9.47701 75.4533 -1 1 -5
20063 1625 6 78.8743 48.9536 71.8814 5 0 -2
22074 1960 5 40.6534 -67.2466 12.0689 5 1 -6
18666 1392 5 40.879 -27.5187 73.6292 0 1 4
19391 1513 6 15.1991 -67.0777 78.5085 -2 0 -1
19392 1513 5 14.2114 -67.0912 77.3013 -2 0 -1
16641 1055 6 32.2181 -11.4835 73.8537 -1 1 -5
19885 1596 5 37.7024 61.025 26.2596 0 0 1
19101 1465 6 58.4968 29.1599 78.6517 1 0 2
19886 1596 6 38.5198 62.0528 25.7646 0 0 1
19887 1596 6 38.9209 63.2168 26.6365 0 0 1
12222 318 5 56.1901 -32.2277 70.4312 0 0 -3
16642 1055 6 32.842 -12.293 72.7681 -1 1 -5
19889 1596 6 40.0117 65.4438 26.8689 0 0 1
11035 121 5 49.7471 44.5851 60.685 0 1 0
19888 1596 6 39.7353 64.2465 25.9981 0 0 1
11036 121 6 51.0736 44.1842 60.1629 0 1 0
11037 121 6 51.9894 45.5288 60.3357 0 1 0
19890 1596 5 40.9239 66.6487 26.505 0 0 1
11038 121 6 53.4132 45.3342 59.6886 0 1 0
12221 318 6 57.4436 -31.2481 70.2454 0 0 -3
12220 318 6 58.0512 -31.4764 68.9287 0 0 -3
19099 1465 5 58.2648 31.499 79.631 1 0 2
12218 318 6 59.0472 -30.591 66.9314 0 0 -3
12219 318 6 59.0934 -30.4897 68.4435 0 0 -3
19100 1465 6 59.2186 30.3926 79.1872 1 0 2
19387 1513 5 18.8117 -64.1707 76.4698 -2 0 -1
10933 104 5 77.5286 -24.4266 35.9128 1 0 3
10935 104 6 79.1624 -26.0332 37.4309 1 0 3
10563 42 6 74.9464 29.6476 14.6515 4 1 0
10562 42 6 74.9002 29.1433 16.2476 4 1 0
10561 42 5 73.7932 28.0696 16.6303 4 1 0
20297 1664 6 52.1795 38.0991 1.99438 -1 1 1
20062 1625 6 77.9451 48.9779 70.6992 5 0 -2
20064 1625 5 78.6725 47.8137 72.7925 5 0 -2
20294 1664 6 54.0633 41.5321 2.62697 -1 1 1
20295 1664 6 53.6347 40.3328 1.78721 -1 1 1
20178 1644 5 0.567283 -27.306 73.343 3 1 -6
20177 1644 6 1.122 -28.4758 74.091 3 1 -6
20296 1664 6 52.713 39.4959 2.58942 -1 1 1
20298 1664 5 50.9564 37.5736 2.64109 -1 1 1
10886 96 6 24.7772 -65.3593 31.1275 4 0 1
10885 96 5 25.5883 -64.5356 32.1487 4 0 1
10888 96 6 22.9787 -67.0402 30.8843 4 0 1
15565 876 5 30.5813 -51.0778 12.3705 0 0 0
17272 1160 6 52.9265 -35.6746 34.3091 0 1 2
10890 96 5 21.108 -68.7371 30.6102 4 0 1
10889 96 6 22.1108 -68.0911 31.6062 4 0 1
12217 318 5 60.2076 -29.8207 66.1148 0 0 -3
17274 1160 5 53.4375 -36.3418 31.9179 0 1 2
10887 96 6 23.9702 -66.3849 31.7517 4 0 1
10921 102 5 40.3271 -46.8216 43.6567 -2 0 -3
10938 104 5 81.5207 -27.1756 34.5712 1 0 3
10923 102 6 41.0184 -45.213 45.6403 -2 0 -3
10924 102 6 40.9468 -43.8472 46.2139 -2 0 -3
17271 1160 6 51.85 -34.883 35.1354 0 1 2
17273 1160 6 52.7183 -35.4911 32.7679 0 1 2
17269 1160 5 50.8979 -34.5904 37.5196 0 1 2
17270 1160 6 52.1142 -35.2107 36.6164 0 1 2
16225 986 5 45.6658 37.7635 74.4687 0 0 -2
16226 986 6 45.822 36.5288 73.4891 0 0 -2
17567 1209 6 57.3129 -52.2135 22.3793 0 1 -3
17568 1209 5 56.4287 -51.8814 23.5781 0 1 -3
18242 1322 6 27.9792 -43.4748 15.2773 1 1 -1
15077 794 6 26.5776 44.5304 36.6832 -2 1 -4
15078 794 5 26.1958 45.0113 35.2551 -2 1 -4
15076 794 6 27.0202 43.1158 36.8524 -2 1 -4
15075 794 6 27.6527 42.6577 38.1553 -2 1 -4
18243 1322 6 26.8228 -42.5887 14.8269 1 1 -1
18244 1322 6 25.6629 -43.1752 14.0692 1 1 -1
17020 1118 6 34.1606 -61.745 34.5809 -1 0 0
18241 1322 5 29.2754 -42.5908 15.7845 1 1 -1
15074 794 6 27.789 41.137 38.4107 -2 1 -4
15073 794 5 28.3591 40.9764 39.8306 -2 1 -4
17566 1209 6 58.7955 -52.5337 22.618 0 1 -3
22110 1966 5 13.8261 -27.7781 78.0202 6 0 -5
22109 1966 6 13.5528 -28.6139 79.3293 6 0 -5
21506 1866 6 47.6094 42.4735 1.40571 2 1 -3
21507 1866 6 47.7004 41.1599 0.573377 2 1 -3
16228 986 6 46.8989 37.6534 71.5699 0 0 -2
16229 986 6 48.1951 38.0348 70.6849 0 0 -2